 Gaussian 16, Revision C.01,
 Gaussian 16:  ES64L-G16RevC.01  3-Jul-2019

 ----------------------------------------------------------------------
 #N MP2/6-311+G(2d,p) DIIS OPT=(maxstep=10,maxcycles=50,VeryTight) Geom
 =Connectivity FREQ=(anharmonic,vibrot,readanharm)
 ----------------------------------------------------------------------

 ------------------------------------
 C5H5N (3-Cyano)Methylenecyclopropane
 ------------------------------------
 Symbolic Z-matrix:
 Charge =  0 Multiplicity = 1

 SCF Done:  E(RHF) =  -246.685773292     A.U. after   15 cycles
 E2 =    -0.8926546538D+00 EUMP2 =    -0.24757842794530D+03
 SCF Done:  E(RHF) =  -246.682719379     A.U. after   13 cycles
 E2 =    -0.8966480279D+00 EUMP2 =    -0.24757936740735D+03
 SCF Done:  E(RHF) =  -246.681937406     A.U. after   12 cycles
 E2 =    -0.8974764780D+00 EUMP2 =    -0.24757941388444D+03
 SCF Done:  E(RHF) =  -246.681870469     A.U. after   11 cycles
 E2 =    -0.8975478861D+00 EUMP2 =    -0.24757941835539D+03
 SCF Done:  E(RHF) =  -246.681903753     A.U. after   10 cycles
 E2 =    -0.8975163184D+00 EUMP2 =    -0.24757942007181D+03
 SCF Done:  E(RHF) =  -246.681956935     A.U. after    8 cycles
 E2 =    -0.8974633928D+00 EUMP2 =    -0.24757942032777D+03
 SCF Done:  E(RHF) =  -246.681965016     A.U. after    7 cycles
 E2 =    -0.8974553356D+00 EUMP2 =    -0.24757942035204D+03
 SCF Done:  E(RHF) =  -246.681964050     A.U. after    7 cycles
 E2 =    -0.8974563090D+00 EUMP2 =    -0.24757942035936D+03
 SCF Done:  E(RHF) =  -246.681961527     A.U. after    6 cycles
 E2 =    -0.8974588359D+00 EUMP2 =    -0.24757942036292D+03
 SCF Done:  E(RHF) =  -246.681960988     A.U. after    5 cycles
 E2 =    -0.8974593755D+00 EUMP2 =    -0.24757942036384D+03
 E2 =    -0.8974594090D+00 EUMP2 =    -0.24757942036526D+03
 E2 =    -0.8974592370D+00 EUMP2 =    -0.24757942036609D+03
 E2 =    -0.8974590778D+00 EUMP2 =    -0.24757942036556D+03
 E2 =    -0.8974589755D+00 EUMP2 =    -0.24757942036524D+03
 E2 =    -0.8974590783D+00 EUMP2 =    -0.24757942035789D+03
 E2 =    -0.8974591968D+00 EUMP2 =    -0.24757942036748D+03
 E2 =    -0.8974592404D+00 EUMP2 =    -0.24757942036160D+03
 Optimization completed.
    -- Stationary point found.
 Normal termination of Gaussian 16 at Thu Sep 22 06:37:17 2022.

 ----------------------------------------------------------------------
 #N Geom=AllCheck Guess=TCheck SCRF=Check GenChk RMP2(FC)/6-311+G(2d,p)
  Freq
 ----------------------------------------------------------------------

 Structure from the checkpoint file:  "/scratch/webmo-5066/629738/Gau-155635.chk"
 ------------------------------------
 C5H5N (3-Cyano)Methylenecyclopropane
 ------------------------------------
 Charge =  0 Multiplicity = 1

                         Standard orientation:
 ---------------------------------------------------------------------
 Center     Atomic      Atomic             Coordinates (Angstroms)
 Number     Number       Type             X           Y           Z
 ---------------------------------------------------------------------
      1          6           0       -0.225755    0.396680    0.613113
      2          6           0        1.058828   -0.045401    0.025335
      3          6           0        0.623403    1.304119   -0.322309
      4          1           0        1.101296    2.154027    0.152291
      5          1           0        0.223800    1.478013   -1.315597
      6          6           0        1.921693   -1.042049   -0.085006
      7          1           0        1.746856   -1.985907    0.418989
      8          1           0        2.818291   -0.935251   -0.685605
      9          6           0       -1.455633   -0.148340    0.101181
     10          7           0       -2.454775   -0.595368   -0.318251
     11          1           0       -0.242034    0.666639    1.663795
 ---------------------------------------------------------------------

 E2 =    -0.8974592457D+00 EUMP2 =    -0.24757942036688D+03
 E2 =    -0.8974592457D+00 EUMP2 =    -0.24757942036688D+03
 E2 =    -0.8974576317D+00 EUMP2 =    -0.24757942026914D+03
 SCF Done:  E(RHF) =  -246.682069691     A.U. after   11 cycles
 E2 =    -0.8972826551D+00 EUMP2 =    -0.24757935234639D+03
 E2 =    -0.8972826551D+00 EUMP2 =    -0.24757935234639D+03
 SCF Done:  E(RHF) =  -246.681715838     A.U. after   11 cycles
 E2 =    -0.8976383248D+00 EUMP2 =    -0.24757935416313D+03
 E2 =    -0.8976383248D+00 EUMP2 =    -0.24757935416313D+03
 SCF Done:  E(RHF) =  -246.682052777     A.U. after   10 cycles
 E2 =    -0.8972989619D+00 EUMP2 =    -0.24757935173938D+03
 E2 =    -0.8972989619D+00 EUMP2 =    -0.24757935173938D+03
 SCF Done:  E(RHF) =  -246.681731009     A.U. after   10 cycles
 E2 =    -0.8976225254D+00 EUMP2 =    -0.24757935353473D+03
 E2 =    -0.8976225254D+00 EUMP2 =    -0.24757935353473D+03
 SCF Done:  E(RHF) =  -246.681742248     A.U. after    9 cycles
 E2 =    -0.8976106177D+00 EUMP2 =    -0.24757935286574D+03
 E2 =    -0.8976106177D+00 EUMP2 =    -0.24757935286574D+03
 SCF Done:  E(RHF) =  -246.682040079     A.U. after    9 cycles
 E2 =    -0.8973100922D+00 EUMP2 =    -0.24757935017151D+03
 E2 =    -0.8973100922D+00 EUMP2 =    -0.24757935017151D+03
 SCF Done:  E(RHF) =  -246.681882774     A.U. after    9 cycles
 E2 =    -0.8974662299D+00 EUMP2 =    -0.24757934900393D+03
 E2 =    -0.8974662299D+00 EUMP2 =    -0.24757934900393D+03
 SCF Done:  E(RHF) =  -246.681895186     A.U. after    9 cycles
 E2 =    -0.8974537879D+00 EUMP2 =    -0.24757934897365D+03
 E2 =    -0.8974537879D+00 EUMP2 =    -0.24757934897365D+03
 SCF Done:  E(RHF) =  -246.681891465     A.U. after    9 cycles
 E2 =    -0.8974567710D+00 EUMP2 =    -0.24757934823645D+03
 E2 =    -0.8974567710D+00 EUMP2 =    -0.24757934823645D+03
 SCF Done:  E(RHF) =  -246.681884658     A.U. after    9 cycles
 E2 =    -0.8974636804D+00 EUMP2 =    -0.24757934833816D+03
 E2 =    -0.8974636804D+00 EUMP2 =    -0.24757934833816D+03

 Alpha  occ. eigenvalues --  -15.57494 -11.29833 -11.28380 -11.28213 -11.27643
 Alpha  occ. eigenvalues --  -11.25790  -1.22388  -1.18540  -1.01307  -0.91941
 Alpha  occ. eigenvalues --   -0.78539  -0.72352  -0.67691  -0.63202  -0.59727
 Alpha  occ. eigenvalues --   -0.55546  -0.52732  -0.49633  -0.44331  -0.42415
 Alpha  occ. eigenvalues --   -0.39405
 Alpha virt. eigenvalues --    0.05491   0.07115   0.07398   0.07678   0.09841
 Alpha virt. eigenvalues --    0.10388   0.10799   0.12129   0.13238   0.14500
 Alpha virt. eigenvalues --    0.15452   0.16446   0.16744   0.17106   0.18553

 Mulliken charges:
               1
     1  C    0.268590
     2  C    0.287721
     3  C   -0.532142
     4  H    0.147658
     5  H    0.156886
     6  C   -0.391348
     7  H    0.134117
     8  H    0.129040
     9  C   -0.038613
    10  N   -0.301240
    11  H    0.139331
 Sum of Mulliken charges =  -0.00000

 Dipole moment (field-independent basis, Debye):
    X=              3.6986    Y=              1.5832    Z=              1.0179  Tot=              4.1499
 Quadrupole moment (field-independent basis, Debye-Ang):
   XX=            -44.5738   YY=            -33.9928   ZZ=            -34.7259
   XY=             -3.3368   XZ=             -2.7355   YZ=             -0.7289

  Exact polarizability:      75.684      -2.576      60.293       0.220       0.060      46.217
 Approx polarizability:      62.517      -0.661      54.579       1.761       1.280      45.619

                      1                      2                      3
                      A                      A                      A
 Frequencies --    118.3871               199.7984               310.8513
 Red. masses --      4.7105                 4.2206                 2.8346
 Frc consts  --      0.0389                 0.0993                 0.1614
 IR Inten    --      3.4484                 3.4153                 5.8121

                      4                      5                      6
                      A                      A                      A
 Frequencies --    343.8780               498.6444               542.3438
 Red. masses --      3.4178                 4.0332                 3.0962
 Frc consts  --      0.2381                 0.5909                 0.5366
 IR Inten    --      1.2806                 0.0664                 1.6176

                      7                      8                      9
                      A                      A                      A
 Frequencies --    675.0053               731.4481               821.2453
 Red. masses --      1.4039                 3.2892                 2.2540
 Frc consts  --      0.3769                 1.0368                 0.8957
 IR Inten    --      0.6706                 4.9200                 0.2167

                     10                     11                     12
                      A                      A                      A
 Frequencies --    914.2026               920.9226               976.6969
 Red. masses --      1.8722                 1.3037                 1.7221
 Frc consts  --      0.9219                 0.6515                 0.9679
 IR Inten    --     14.0139                41.3598                 1.8181

                     13                     14                     15
                      A                      A                      A
 Frequencies --   1057.8892              1076.6005              1091.7379
 Red. masses --      1.4452                 1.4523                 2.1120
 Frc consts  --      0.9529                 0.9917                 1.4831
 IR Inten    --      5.5213                 0.3714                 4.4227

                     16                     17                     18
                      A                      A                      A
 Frequencies --   1105.5670              1142.5905              1335.7489
 Red. masses --      1.4067                 2.0989                 1.5227
 Frc consts  --      1.0130                 1.6145                 1.6007
 IR Inten    --      2.1308                13.5682                 0.7711

                     19                     20                     21
                      A                      A                      A
 Frequencies --   1460.8675              1489.9801              1813.0640
 Red. masses --      1.0878                 1.1901                 8.6241
 Frc consts  --      1.3678                 1.5567                16.7028
 IR Inten    --      3.2809                 1.0182                 2.0237

                     22                     23                     24
                      A                      A                      A
 Frequencies --   2174.2355              3151.2711              3165.7441
 Red. masses --     12.5088                 1.0528                 1.0581
 Frc consts  --     34.8401                 6.1599                 6.2480
 IR Inten    --      4.8796                 1.4734                 3.1296

                     25                     26                     27
                      A                      A                      A
 Frequencies --   3191.5606              3249.8556              3265.7902
 Red. masses --      1.0878                 1.1187                 1.1185
 Frc consts  --      6.5284                 6.9612                 7.0285
 IR Inten    --      0.3889                 0.3172                 1.0771

 - Thermochemistry -
 -------------------
 Temperature   298.150 Kelvin.  Pressure   1.00000 Atm.
 Atom     1 has atomic number  6 and mass  12.00000

 Molecular mass:    79.04220 amu.
 Principal axes and moments of inertia in atomic units:
                                 1                 2                 3
     Eigenvalues --          232.946568        705.445428        848.593525
           X                   0.999610         -0.026235         -0.009551
           Y                   0.026077          0.999526         -0.016338
           Z                   0.009975          0.016083          0.999821
 This molecule is an asymmetric top.
 Rotational symmetry number  1.
 Rotational temperatures (Kelvin)      0.37182     0.12278     0.10207
 Rotational constants (GHZ):           7.74745     2.55830     2.12674
 Zero-point vibrational energy     220268.0 (Joules/Mol)
                                   52.64531 (Kcal/Mol)
 Warning -- explicit consideration of   6 degrees of freedom as
           vibrations may cause significant error
 Vibrational temperatures:    170.33   287.47   447.25   494.76   717.44
          (Kelvin)            780.31   971.18  1052.39  1181.59  1315.33
                             1325.00  1405.25  1522.07  1548.99  1570.77
                             1590.66  1643.93  1921.84  2101.86  2143.75
                             2608.59  3128.24  4533.98  4554.80  4591.94
                             4675.82  4698.74

 Zero-point correction=                           0.083896 (Hartree/Particle)
 Thermal correction to Energy=                    0.089772
 Thermal correction to Enthalpy=                  0.090716
 Thermal correction to Gibbs Free Energy=         0.054594
 Sum of electronic and zero-point Energies=           -247.495525
 Sum of electronic and thermal Energies=              -247.489649
 Sum of electronic and thermal Enthalpies=            -247.488705
 Sum of electronic and thermal Free Energies=         -247.524826

                     E (Thermal)             CV                S
                      KCal/Mol        Cal/Mol-Kelvin    Cal/Mol-Kelvin
 Total                   56.333             20.759             76.024
 Electronic               0.000              0.000              0.000
 Translational            0.889              2.981             39.017
 Rotational               0.889              2.981             26.436
 Vibrational             54.555             14.797             10.571
 Vibration     1          0.609              1.934              3.127
 Vibration     2          0.638              1.840              2.135
 Vibration     3          0.700              1.653              1.358
 Vibration     4          0.723              1.588              1.194
 Vibration     5          0.854              1.253              0.662
 Vibration     6          0.897              1.156              0.560

 ## DEPERTURBED TRANSITIONS MOMENTS ##

 Electric dipole : Fundamental Bands
 ------------------------------------------------------------------------

 ## AFTER VARIATIONAL CORRECTION

 Electric dipole : Fundamental Bands
 ------------------------------------------------------------------------

 Optimization completed.
    -- Stationary point found.
 Normal termination of Gaussian 16 at Thu Sep 22 12:31:41 2022.
